H2O                                     
    1.000000000000000     
     2.467220    0.000003    0.000000
     0.000005    4.267452   -0.000001
     0.000000   -0.000001    7.130494
   8
Direct
  0.000405  0.000000  0.500000
  0.000400 -0.000005  0.000000
  0.500366  0.166537  0.500000
  0.500365  0.500011  0.500000
  0.500366  0.499995  0.000000
  0.000396  0.333464  0.000000
  0.500363  0.833464  0.000000
  0.000396  0.666536  0.500000

   32   60   90
 0.34559251775E+02 0.50209695582E+02 0.87770848814E+02 0.12537897727E+03 0.14683665956E+03
 0.14972384295E+03 0.14066250140E+03 0.12716522426E+03 0.11368358718E+03 0.10174121659E+03
 0.91479654395E+02 0.82811989328E+02 0.75732303183E+02 0.70252408407E+02 0.66342251116E+02
 0.63975522975E+02 0.63166917461E+02 0.63933567148E+02 0.66258824844E+02 0.70127126999E+02
 0.75563930586E+02 0.82600201400E+02 0.91225191391E+02 0.10144318749E+03 0.11334045315E+03
 0.12679131458E+03 0.14032891639E+03 0.14958967588E+03 0.14711331095E+03 0.12616150278E+03
 0.88823383030E+02 0.50980191105E+02 0.48617222795E+02 0.61837568444E+02 0.93298785689E+02
 0.12403430708E+03 0.14018933469E+03 0.14000173535E+03 0.12950349229E+03 0.11535774744E+03
 0.10148000942E+03 0.89216934237E+02 0.78733469760E+02 0.69990715995E+02 0.62981075440E+02
 0.57668309821E+02 0.53954980235E+02 0.51745586826E+02 0.50998286668E+02 0.51707113303E+02
 0.53877496997E+02 0.57549851805E+02 0.62818673257E+02 0.69782455855E+02 0.78479255505E+02
 0.88916437744E+02 0.10113301955E+03 0.11497746544E+03 0.12915241395E+03 0.13982020637E+03
 0.14036636493E+03 0.12466083083E+03 0.94176989131E+02 0.62489653295E+02 0.83857483348E+02
 0.92430175442E+02 0.11228549567E+03 0.13011015367E+03 0.13655756892E+03 0.13106115250E+03
 0.11846221561E+03 0.10377765547E+03 0.89868105119E+02 0.77669239264E+02 0.67303464251E+02
 0.58760015990E+02 0.52018293934E+02 0.46989991006E+02 0.43522029211E+02 0.41477726511E+02
 0.40789644378E+02 0.41442582995E+02 0.43450803385E+02 0.46879944960E+02 0.51865256825E+02
 0.58560572600E+02 0.67056476535E+02 0.77374626043E+02 0.89526205914E+02 0.10339749832E+03
 0.11808843979E+03 0.13079781842E+03 0.13654986611E+03 0.13043958912E+03 0.11282734916E+03
 0.92852299929E+02 0.12358761610E+03 0.12711206901E+03 0.13438390750E+03 0.13826158196E+03
 0.13428008283E+03 0.12313478760E+03 0.10836915243E+03 0.93238049442E+02 0.79461168714E+02
 0.67521057982E+02 0.57466865323E+02 0.49284742296E+02 0.42920677555E+02 0.38231851778E+02
 0.35023347643E+02 0.33139157485E+02 0.32505866284E+02 0.33107062878E+02 0.34958175891E+02
 0.38130634584E+02 0.42778521463E+02 0.49096905299E+02 0.57230885671E+02 0.67236427833E+02
 0.79127959270E+02 0.92860519997E+02 0.10797215089E+03 0.12278352980E+03 0.13407250198E+03
 0.13826841920E+03 0.13455936404E+03 0.12728312401E+03 0.15285584504E+03 0.15247585037E+03
 0.15004229432E+03 0.14322123739E+03 0.13130048994E+03 0.11590041243E+03 0.99545157823E+02
 0.84149700473E+02 0.70560253927E+02 0.58942840824E+02 0.49282637723E+02 0.41535433210E+02
 0.35593295961E+02 0.31258270941E+02 0.28305576247E+02 0.26573295593E+02 0.25990960732E+02
 0.26543976234E+02 0.28246048744E+02 0.31165613376E+02 0.35462242194E+02 0.41360117793E+02
 0.49059032256E+02 0.58669313547E+02 0.70236132971E+02 0.83775853470E+02 0.99131875344E+02
 0.11548312339E+03 0.13094070907E+03 0.14298039051E+03 0.14993464899E+03 0.15245211181E+03
 0.16634514697E+03 0.16374499149E+03 0.15582761080E+03 0.14304151063E+03 0.12679035904E+03
 0.10915631307E+03 0.92047085479E+02 0.76608386079E+02 0.63224526479E+02 0.51930842380E+02
 0.42675980028E+02 0.35368687772E+02 0.29837006830E+02 0.25834351227E+02 0.23117615020E+02
 0.21525232521E+02 0.20990029798E+02 0.21498407168E+02 0.23063137020E+02 0.25749405856E+02
 0.29716200450E+02 0.35205330079E+02 0.42464477473E+02 0.51667999909E+02 0.62908754703E+02
 0.76239079307E+02 0.91628094214E+02 0.10870582155E+03 0.12634877487E+03 0.14266340151E+03
 0.15556021250E+03 0.16361021452E+03 0.16742116334E+03 0.16396189824E+03 0.15396326651E+03
 0.13901139446E+03 0.12131682077E+03 0.10306787059E+03 0.85869764799E+02 0.70547589774E+02
 0.57380470787E+02 0.46395735535E+02 0.37522662219E+02 0.30614466158E+02 0.25438837215E+02
 0.21716229809E+02 0.19198214749E+02 0.17726259356E+02 0.17232476850E+02 0.17701568867E+02
 0.19147951492E+02 0.21637633748E+02 0.25326588502E+02 0.30461475440E+02 0.37322086101E+02
 0.46142704286E+02 0.57072333848E+02 0.70183593425E+02 0.85452915144E+02 0.10261077645E+03
 0.12085010176E+03 0.13858499030E+03 0.15363588749E+03 0.16378407434E+03 0.16251651971E+03
 0.15894407847E+03 0.14871916349E+03 0.13365073917E+03 0.11604466281E+03 0.98007643081E+02
 0.81012514236E+02 0.65870733514E+02 0.52920294327E+02 0.42226075598E+02 0.33694431802E+02
 0.27119461268E+02 0.22221681974E+02 0.18708711756E+02 0.16339835679E+02 0.14961400913E+02
 0.14500748607E+02 0.14938388305E+02 0.16292762394E+02 0.18634805667E+02 0.22115871390E+02
 0.26974718747E+02 0.33503162684E+02 0.41981873485E+02 0.52619219001E+02 0.65512158833E+02
 0.80600895101E+02 0.97556599233E+02 0.11558257957E+03 0.13322388257E+03 0.14838623041E+03
 0.15876061026E+03 0.15676547657E+03 0.15334096059E+03 0.14352658616E+03 0.12901084149E+03
 0.11193278880E+03 0.94273079284E+02 0.77502590874E+02 0.62521659277E+02 0.49762331782E+02
 0.39321587589E+02 0.31071223616E+02 0.24749435091E+02 0.20045431753E+02 0.16670012758E+02
 0.14398605054E+02 0.13083705160E+02 0.12646319898E+02 0.13061863076E+02 0.14353663086E+02
 0.16599156777E+02 0.19943937660E+02 0.24610654823E+02 0.30887268467E+02 0.39084815668E+02
 0.49467387444E+02 0.62167704488E+02 0.77095781487E+02 0.93829696512E+02 0.11148264260E+03
 0.12859850663E+03 0.14320658310E+03 0.15316498089E+03 0.15280419025E+03 0.14953031887E+03
 0.14011130739E+03 0.12607770976E+03 0.10940891086E+03 0.92008612043E+02 0.75375380703E+02
 0.60494601383E+02 0.47868442576E+02 0.37606752758E+02 0.29546893459E+02 0.23385608204E+02
 0.18794973357E+02 0.15494655838E+02 0.13275804678E+02 0.11996410482E+02 0.11572435346E+02
 0.11975246980E+02 0.13232050493E+02 0.15425461742E+02 0.18695923653E+02 0.23250470740E+02
 0.29367744904E+02 0.37375143930E+02 0.47577860474E+02 0.60143756256E+02 0.74971501312E+02
 0.91570201732E+02 0.10896752048E+03 0.12567739261E+03 0.13980334924E+03 0.14936194585E+03
 0.15143131013E+03 0.14821409838E+03 0.13894218949E+03 0.12508405982E+03 0.10855902336E+03
 0.91245112502E+02 0.74655161456E+02 0.59808056584E+02 0.47230828724E+02 0.37035389558E+02
 0.29044413224E+02 0.22939121254E+02 0.18386208800E+02 0.15109730731E+02 0.12907355107E+02
 0.11639332520E+02 0.11219736107E+02 0.11618400557E+02 0.12863999137E+02 0.15041089251E+02
 0.18287992225E+02 0.22805278571E+02 0.28867043060E+02 0.36805763605E+02 0.46941981590E+02
 0.59458462823E+02 0.74252383178E+02 0.90808478014E+02 0.10812080499E+03 0.12468820571E+03
 0.13863879756E+03 0.14804864826E+03 0.15275497570E+03 0.14948240008E+03 0.14006711730E+03
 0.12603855645E+03 0.10937491867E+03 0.91979217570E+02 0.75349967630E+02 0.60472848021E+02
 0.47850249704E+02 0.37591954678E+02 0.29535063160E+02 0.23376102712E+02 0.18787129962E+02
 0.15487954188E+02 0.13269885180E+02 0.11990982525E+02 0.11567191538E+02 0.11969858104E+02
 0.13226207693E+02 0.15418875814E+02 0.18688243835E+02 0.23241192677E+02 0.29356222566E+02
 0.37360742946E+02 0.47560149903E+02 0.60122557475E+02 0.74946700503E+02 0.91541461803E+02
 0.10893419759E+03 0.12563886801E+03 0.13975966152E+03 0.14931430940E+03 0.15666841998E+03
 0.15324621183E+03 0.14343866964E+03 0.12893245936E+03 0.11186455837E+03 0.94214196726E+02
 0.77451889360E+02 0.62478334212E+02 0.49725981795E+02 0.39291798459E+02 0.31047204715E+02
 0.24730028742E+02 0.20029412378E+02 0.16656368830E+02 0.14386591883E+02 0.13072703966E+02
 0.12635693618E+02 0.13050941603E+02 0.14341807661E+02 0.16585752972E+02 0.19928258682E+02
 0.24591718829E+02 0.30863878793E+02 0.39055827816E+02 0.49432002853E+02 0.62125488271E+02
 0.77046309925E+02 0.93772136467E+02 0.11141576701E+03 0.12852139251E+03 0.14311967273E+03
 0.15307079378E+03 0.16238231612E+03 0.15881195056E+03 0.14859389165E+03 0.13353630246E+03
 0.11594337235E+03 0.97919675287E+02 0.80936779629E+02 0.65806031317E+02 0.52865764601E+02
 0.42180965000E+02 0.33657671849E+02 0.27089559348E+02 0.22196990007E+02 0.18687763170E+02
 0.16321458124E+02 0.14944591539E+02 0.14484512071E+02 0.14921702770E+02 0.16274632544E+02
 0.18614238402E+02 0.22091721706E+02 0.26945559733E+02 0.33467380365E+02 0.41937986794E+02
 0.52566147183E+02 0.65449125859E+02 0.80527015221E+02 0.97470623209E+02 0.11548330651E+03
 0.13311128331E+03 0.14826236474E+03 0.15862924343E+03 0.16728076864E+03 0.16382031617E+03
 0.15382090389E+03 0.13887261502E+03 0.12118758627E+03 0.10295243360E+03 0.85769381136E+02
 0.70461528288E+02 0.57307595945E+02 0.46334934507E+02 0.37472630633E+02 0.30573499834E+02
 0.25404972915E+02 0.21687572810E+02 0.19173128669E+02 0.17703313903E+02 0.17210303610E+02
 0.17678797506E+02 0.19123217289E+02 0.21609523891E+02 0.25293503573E+02 0.30421566509E+02
 0.37273422356E+02 0.46083585898E+02 0.57001438880E+02 0.70099783760E+02 0.85355013250E+02
 0.10249794611E+03 0.12072335926E+03 0.13844827384E+03 0.15349491878E+03 0.16364316303E+03
 0.16625536559E+03 0.16364527548E+03 0.15570545425E+03 0.14290006630E+03 0.12664317034E+03
 0.10901673579E+03 0.91922588523E+02 0.76500829775E+02 0.63133086220E+02 0.51854090233E+02
 0.42612321245E+02 0.35316213006E+02 0.29793485608E+02 0.25797493695E+02 0.23085324120E+02
 0.21495645267E+02 0.20961411249E+02 0.21469054127E+02 0.23031323165E+02 0.25713294654E+02
 0.29673740846E+02 0.35154280831E+02 0.42402634362E+02 0.51593448202E+02 0.62819875239E+02
 0.76134404759E+02 0.91506700340E+02 0.10856928818E+03 0.12620408140E+03 0.14252344287E+03
 0.15543850829E+03 0.16351043794E+03 0.15288306961E+03 0.15247814984E+03 0.14998420178E+03
 0.14310258061E+03 0.13114689781E+03 0.11574076209E+03 0.99397518854E+02 0.84020813086E+02
 0.70450367762E+02 0.58850231646E+02 0.49205286995E+02 0.41471160711E+02 0.35539637256E+02
 0.31212618065E+02 0.28265438212E+02 0.26536413669E+02 0.25955247787E+02 0.26507403206E+02
 0.28206542351E+02 0.31120950050E+02 0.35409984253E+02 0.41297705794E+02 0.48984020021E+02
 0.58579506679E+02 0.70129480421E+02 0.83650557190E+02 0.98987944551E+02 0.11532667764E+03
 0.13078888058E+03 0.14286141617E+03 0.14987466680E+03 0.15245266014E+03 0.12376068463E+03
 0.12724301125E+03 0.13441005210E+03 0.13817816939E+03 0.13412645535E+03 0.12295813325E+03
 0.10820029017E+03 0.93089241934E+02 0.79334018271E+02 0.67413472211E+02 0.57376307214E+02
 0.49208750672E+02 0.42856648227E+02 0.38177005207E+02 0.34974925401E+02 0.33094567520E+02
 0.32462668481E+02 0.33062875779E+02 0.34910577976E+02 0.38077076170E+02 0.42716301935E+02
 0.49023290557E+02 0.57143281161E+02 0.67132352065E+02 0.79004834727E+02 0.92716127149E+02
 0.10780762072E+03 0.12261000219E+03 0.13391923044E+03 0.13818174415E+03 0.13457997080E+03
 0.12740973055E+03 0.84119170988E+02 0.92639230158E+02 0.11236137645E+03 0.13004474231E+03
 0.13639910197E+03 0.13086910334E+03 0.11827596912E+03 0.10361284226E+03 0.89726838707E+02
 0.77548986715E+02 0.67201276784E+02 0.58673310404E+02 0.51944519311E+02 0.46926401354E+02
 0.43465761662E+02 0.41425928387E+02 0.40739502631E+02 0.41391304190E+02 0.43395596806E+02
 0.46818005310E+02 0.51793780218E+02 0.58476852047E+02 0.66957960689E+02 0.77258706437E+02
 0.89389886672E+02 0.10323805720E+03 0.11790726064E+03 0.13060885816E+03 0.13639027114E+03
 0.13036777269E+03 0.11289379482E+03 0.93054259490E+02 0.48831619638E+02 0.62003739114E+02
 0.93340720516E+02 0.12394428994E+03 0.14001344932E+03 0.13979698793E+03 0.12930734279E+03
 0.11518433913E+03 0.10133049916E+03 0.89088437124E+02 0.78623010828E+02 0.69895917315E+02
 0.62899696162E+02 0.57597867799E+02 0.53892698329E+02 0.51688452399E+02 0.50943110091E+02
 0.51650637856E+02 0.53816557391E+02 0.57481484766E+02 0.62740158024E+02 0.69691338943E+02
 0.78373281887E+02 0.88793196069E+02 0.10098948164E+03 0.11481051105E+03 0.12896227878E+03
 0.13961895773E+03 0.14018873249E+03 0.12456258514E+03 0.94207055421E+02 0.62646962515E+02
 0.34594151192E+02 0.50215791698E+02 0.87700050884E+02 0.12522789682E+03 0.14663742580E+03
 0.14951516446E+03 0.14046876111E+03 0.12699424503E+03 0.11353457305E+03 0.10161132491E+03
 0.91366432393E+02 0.82713625517E+02 0.75647114945E+02 0.70178429543E+02 0.66277048313E+02
 0.63916104625E+02 0.63109773346E+02 0.63874970322E+02 0.66195287843E+02 0.70055703972E+02
 0.75482236204E+02 0.82506282292E+02 0.91117330408E+02 0.10131952268E+03 0.11319846817E+03
 0.12662791789E+03 0.14014234399E+03 0.14938558090E+03 0.14691322753E+03 0.12600281409E+03
 0.88741053204E+02 0.50977554054E+02 0.47896245745E+02 0.62862117349E+02 0.98801004024E+02
 0.13486857693E+03 0.15560365410E+03 0.15866987227E+03 0.15037135027E+03 0.13788322602E+03
 0.12544096239E+03 0.11443265432E+03 0.10491682769E+03 0.96761349224E+02 0.89954612608E+02
 0.84538656870E+02 0.80550501396E+02 0.78065374504E+02 0.77201234962E+02 0.78021059523E+02
 0.80464420129E+02 0.84413206584E+02 0.89790791936E+02 0.96560141516E+02 0.10467938685E+03
 0.11415752802E+03 0.12512502125E+03 0.13753800890E+03 0.15006289757E+03 0.15854837518E+03
 0.15586858947E+03 0.13560922984E+03 0.99794792301E+02 0.63588984352E+02 0.79759233093E+02
 0.91594306463E+02 0.11990358801E+03 0.14800838485E+03 0.16361926402E+03 0.16501328691E+03
 0.15738515406E+03 0.14658144643E+03 0.13600770311E+03 0.12668873639E+03 0.11858650792E+03
 0.11153701880E+03 0.10549317487E+03 0.10047304589E+03 0.96562224706E+02 0.93989595086E+02
 0.93064941257E+02 0.93942043165E+02 0.96473645691E+02 0.10035060508E+03 0.10534053340E+03
 0.11135541364E+03 0.11837637357E+03 0.12644804542E+03 0.13573235144E+03 0.14627844261E+03
 0.15710629696E+03 0.16488065421E+03 0.16379611814E+03 0.14857063652E+03 0.12067710967E+03
 0.92164972993E+02 0.11258208505E+03 0.12043806557E+03 0.13910044565E+03 0.15727388766E+03
 0.16673362528E+03 0.16648767627E+03 0.16023197861E+03 0.15204997979E+03 0.14426233903E+03
 0.13748332378E+03 0.13161237111E+03 0.12644365479E+03 0.12180162356E+03 0.11755909245E+03
 0.11380490912E+03 0.11104264571E+03 0.10998650096E+03 0.11098894164E+03 0.11371258481E+03
 0.11744482422E+03 0.12167266004E+03 0.12629915772E+03 0.13144920042E+03 0.13729765794E+03
 0.14404977012E+03 0.15181365691E+03 0.16000568648E+03 0.16635648766E+03 0.16681250423E+03
 0.15761955087E+03 0.13959951571E+03 0.12081214764E+03 0.13233522449E+03 0.13684675041E+03
 0.14750581668E+03 0.15773952208E+03 0.16282727408E+03 0.16230922562E+03 0.15845806185E+03
 0.15373549397E+03 0.14947886915E+03 0.14600705402E+03 0.14319185963E+03 0.14070524864E+03
 0.13803152921E+03 0.13464939953E+03 0.13064504297E+03 0.12712067039E+03 0.12566183739E+03
 0.12704933802E+03 0.13053568417E+03 0.13453888403E+03 0.13793482872E+03 0.14061561502E+03
 0.14309630703E+03 0.14589647871E+03 0.14934821588E+03 0.15358601541E+03 0.15830854893E+03
 0.16221068365E+03 0.16284985640E+03 0.15792000503E+03 0.14778141443E+03 0.13705697968E+03
 0.13524771242E+03 0.13766317756E+03 0.14342865128E+03 0.14916997486E+03 0.15248855183E+03
 0.15318752647E+03 0.15246850734E+03 0.15159853578E+03 0.15124256757E+03 0.15158018982E+03
 0.15244132769E+03 0.15317854178E+03 0.15254103378E+03 0.14931483144E+03 0.14364475188E+03
 0.13786864828E+03 0.13535275908E+03 0.13775180135E+03 0.14348121959E+03 0.14918233304E+03
 0.15247043848E+03 0.15315336359E+03 0.15242941726E+03 0.15155960942E+03 0.15120531802E+03
 0.15154542888E+03 0.15240980149E+03 0.15314900600E+03 0.15250741836E+03 0.14926656373E+03
 0.14357213095E+03 0.13777200076E+03 0.12564075800E+03 0.12704056900E+03 0.13055004791E+03
 0.13457822682E+03 0.13799324794E+03 0.14068485912E+03 0.14317050946E+03 0.14597302801E+03
 0.14942600312E+03 0.15366407109E+03 0.15838635404E+03 0.16229100736E+03 0.16294152464E+03
 0.15803777898E+03 0.14793920399E+03 0.13725503713E+03 0.13255152109E+03 0.13704435357E+03
 0.14765353155E+03 0.15782815171E+03 0.16286878643E+03 0.16232389866E+03 0.15846262089E+03
 0.15373870773E+03 0.14948327100E+03 0.14601330772E+03 0.14320054228E+03 0.14071619889E+03
 0.13804188052E+03 0.13465329072E+03 0.13063711333E+03 0.12710150017E+03 0.11001264145E+03
 0.11102405249E+03 0.11376281792E+03 0.11751172193E+03 0.12175384074E+03 0.12639125203E+03
 0.13154974668E+03 0.13740537902E+03 0.14416397675E+03 0.15193373198E+03 0.16013180296E+03
 0.16649178568E+03 0.16696531760E+03 0.15780414936E+03 0.13983081446E+03 0.12109257534E+03
 0.11288991888E+03 0.12073202358E+03 0.13934145378E+03 0.15744569307E+03 0.16684527743E+03
 0.16656057411E+03 0.16028592267E+03 0.15209684197E+03 0.14430648552E+03 0.13752581581E+03
 0.13165376820E+03 0.12648427952E+03 0.12184074062E+03 0.11759457202E+03 0.11383469644E+03
 0.11106781481E+03 0.93112191643E+02 0.93996144429E+02 0.96538957126E+02 0.10042938125E+03
 0.10543311371E+03 0.11146123961E+03 0.11849485655E+03 0.12657892820E+03 0.13587572593E+03
 0.14643461399E+03 0.15727577226E+03 0.16506395748E+03 0.16399420572E+03 0.14878756609E+03
 0.12092166513E+03 0.92444572659E+02 0.80067508087E+02 0.91905687528E+02 0.12018452725E+03
 0.14823627798E+03 0.16379171275E+03 0.16514267192E+03 0.15748756064E+03 0.14666899633E+03
 0.13608640053E+03 0.12676067642E+03 0.11865272894E+03 0.11159831612E+03 0.10554996849E+03
 0.10052530747E+03 0.96610228594E+02 0.94035204913E+02 0.77256392485E+02 0.78081835887E+02
 0.80534718021E+02 0.84495916932E+02 0.89887737311E+02 0.96672368802E+02 0.10480754243E+03
 0.11430231228E+03 0.12528759737E+03 0.13771973299E+03 0.15026348669E+03 0.15876203399E+03
 0.15608117708E+03 0.13580370819E+03 0.99965339643E+02 0.63750383454E+02 0.48074416848E+02
 0.63071701770E+02 0.99032565140E+02 0.13509725147E+03 0.15580757463E+03 0.15884078928E+03
 0.15051287875E+03 0.13800330919E+03 0.12554581338E+03 0.11452554690E+03 0.10499968982E+03
 0.96835603035E+02 0.90021493703E+02 0.84599347503E+02 0.80606516500E+02 0.78119156312E+02
 0.63166884325E+02 0.63936808709E+02 0.66265483276E+02 0.70137451504E+02 0.75578153882E+02
 0.82618372386E+02 0.91247125492E+02 0.10146859695E+03 0.11336897969E+03 0.12682189783E+03
 0.14035776714E+03 0.14960865427E+03 0.14711185971E+03 0.12613459620E+03 0.88781296586E+02
 0.50947790493E+02 0.34558804914E+02 0.50241527402E+02 0.87813040995E+02 0.12540646532E+03
 0.14683873067E+03 0.14970525069E+03 0.14063378882E+03 0.12713463653E+03 0.11365500991E+03
 0.10171574619E+03 0.91457652292E+02 0.82793741855E+02 0.75717998759E+02 0.70242004767E+02
 0.66335519355E+02 0.63972213230E+02 0.50998257666E+02 0.51709757979E+02 0.53882935625E+02
 0.57558314286E+02 0.62830411431E+02 0.69797591742E+02 0.78497704688E+02 0.88937991569E+02
 0.10115737213E+03 0.11500368534E+03 0.12917712845E+03 0.13983608282E+03 0.14036386762E+03
 0.12463543621E+03 0.94138058592E+02 0.62459800000E+02 0.48616707087E+02 0.61866711706E+02
 0.93337684139E+02 0.12406017325E+03 0.14019239096E+03 0.13998623240E+03 0.12947893404E+03
 0.11533155307E+03 0.10145563646E+03 0.89195345452E+02 0.78714974590E+02 0.69975523071E+02
 0.62969273524E+02 0.57659783014E+02 0.53949480049E+02 0.51742883213E+02 0.40789617597E+02
 0.41444731661E+02 0.43455223404E+02 0.46886839260E+02 0.51874882924E+02 0.58573111021E+02
 0.67071931167E+02 0.77392858301E+02 0.89546969956E+02 0.10342009604E+03 0.11811036490E+03
 0.13081342801E+03 0.13655167523E+03 0.13042374556E+03 0.11280044521E+03 0.92831050924E+02
 0.83857026230E+02 0.92450771860E+02 0.11231230370E+03 0.13012632748E+03 0.13655618621E+03
 0.13104584175E+03 0.11844042681E+03 0.10375509322E+03 0.89847339160E+02 0.77650988702E+02
 0.67287977625E+02 0.58747433143E+02 0.52008615748E+02 0.46983042317E+02 0.43517555119E+02
 0.41475524211E+02 0.32505839963E+02 0.33108808940E+02 0.34961770899E+02 0.38136259024E+02
 0.42786437246E+02 0.49107345969E+02 0.57243940882E+02 0.67252033303E+02 0.79145939869E+02
 0.92880422833E+02 0.10799245868E+03 0.12280054386E+03 0.13408104994E+03 0.13826529132E+03
 0.13454773977E+03 0.12727265012E+03 0.12358731761E+03 0.12712211780E+03 0.13439547264E+03
 0.13826493174E+03 0.13427182159E+03 0.12311797758E+03 0.10834894202E+03 0.93218177883E+02
 0.79443192645E+02 0.67505440626E+02 0.57453783389E+02 0.49274262444E+02 0.42912715138E+02
 0.38226177687E+02 0.35019701694E+02 0.33137359350E+02 0.25990933320E+02 0.26545412561E+02
 0.28249012249E+02 0.31170267455E+02 0.35468850283E+02 0.41368956918E+02 0.49070272731E+02
 0.58682971744E+02 0.70252107835E+02 0.83793883660E+02 0.99151192839E+02 0.11550166030E+03
 0.13095520497E+03 0.14298814406E+03 0.14993597644E+03 0.15245075835E+03 0.15285572957E+03
 0.15247705936E+03 0.15004100331E+03 0.14321365094E+03 0.13128617694E+03 0.11588200010E+03
 0.99525899818E+02 0.84131692202E+02 0.70544281098E+02 0.58929168854E+02 0.49271368738E+02
 0.41526554121E+02 0.35586641369E+02 0.31253567261E+02 0.28302560956E+02 0.26571805396E+02
 0.20990000209E+02 0.21499619586E+02 0.23065646670E+02 0.25753361669E+02 0.29721859938E+02
 0.35212997260E+02 0.42474390960E+02 0.51680259212E+02 0.62923331500E+02 0.76255830238E+02
 0.91646623842E+02 0.10872508832E+03 0.12636676146E+03 0.14267777613E+03 0.15556953408E+03
 0.16361453608E+03 0.16634517236E+03 0.16374074755E+03 0.15581841716E+03 0.14302728473E+03
 0.12677249500E+03 0.10913712015E+03 0.92028589273E+02 0.76591645827E+02 0.63209944007E+02
 0.51918562275E+02 0.42666032019E+02 0.35360976183E+02 0.29831297470E+02 0.25830342544E+02
 0.23115049851E+02 0.21523962046E+02 0.17232444683E+02 0.17702625864E+02 0.19150149396E+02
 0.21641109550E+02 0.25331585589E+02 0.30468305235E+02 0.37331036572E+02 0.46153954774E+02
 0.57085929725E+02 0.70199453464E+02 0.85470767962E+02 0.10262995757E+03 0.12086924938E+03
 0.13860204152E+03 0.15364865776E+03 0.16379091508E+03 0.16742126385E+03 0.16395525420E+03
 0.15395067485E+03 0.13899448450E+03 0.12129776520E+03 0.10304873681E+03 0.85851930422E+02
 0.70531729155E+02 0.57366859041E+02 0.46384455003E+02 0.37513669727E+02 0.30607586210E+02
 0.25433785381E+02 0.21712696286E+02 0.19195956246E+02 0.17725139138E+02 0.14500714148E+02
 0.14939337384E+02 0.16294748720E+02 0.18637959210E+02 0.22120417275E+02 0.26980959023E+02
 0.33511413640E+02 0.41992384932E+02 0.52632113481E+02 0.65527395696E+02 0.80618209312E+02
 0.97575358022E+02 0.11560158546E+03 0.13324127321E+03 0.14839970251E+03 0.15876804423E+03
 0.16251664244E+03 0.15893687446E+03 0.14870587917E+03 0.13363347974E+03 0.11602573325E+03
 0.97988919154E+02 0.80995207056E+02 0.65855484627E+02 0.52907372875E+02 0.42215524650E+02
 0.33686131702E+02 0.27113165454E+02 0.22217076547E+02 0.18705495610E+02 0.16337783829E+02
 0.14960383886E+02 0.12646283930E+02 0.13062736638E+02 0.14355506383E+02 0.16602098789E+02
 0.19948186597E+02 0.24616494579E+02 0.30895026187E+02 0.39094796396E+02 0.49479788099E+02
 0.62182523999E+02 0.77112725852E+02 0.93848061640E+02 0.11150118963E+03 0.12861542532E+03
 0.14321969161E+03 0.15317222797E+03 0.15676559363E+03 0.15333393095E+03 0.14351365138E+03
 0.12899404095E+03 0.11191430756E+03 0.94254739051E+02 0.77485642618E+02 0.62506815994E+02
 0.49749893216E+02 0.39311558840E+02 0.31063410914E+02 0.24743535621E+02 0.20041119551E+02
 0.16667004370E+02 0.14396692605E+02 0.13082760417E+02 0.11572398927E+02 0.11976072543E+02
 0.13233805463E+02 0.15428277551E+02 0.18699996968E+02 0.23256068448E+02 0.29375194958E+02
 0.37384786298E+02 0.47589947989E+02 0.60158323127E+02 0.74988230632E+02 0.91588315081E+02
 0.10898571125E+03 0.12569385830E+03 0.13981601307E+03 0.14936890864E+03 0.15280429349E+03
 0.14952354789E+03 0.14009879669E+03 0.12606134718E+03 0.10939077449E+03 0.91990513108E+02
 0.75358636418E+02 0.60479999581E+02 0.47856307540E+02 0.37597055510E+02 0.29539384212E+02
 0.23379948166E+02 0.18790834713E+02 0.15491771755E+02 0.13273978972E+02 0.11995512610E+02
 0.11219700398E+02 0.11619207509E+02 0.12865719364E+02 0.15043855658E+02 0.18291996992E+02
 0.22810780860E+02 0.28874368899E+02 0.36815264176E+02 0.46953930731E+02 0.59472910109E+02
 0.74269005289E+02 0.90826468288E+02 0.10813882878E+03 0.12470446248E+03 0.13865125501E+03
 0.14805547528E+03 0.15143139951E+03 0.14820743708E+03 0.13892986324E+03 0.12506788899E+03
 0.10854104045E+03 0.91227125191E+02 0.74638514073E+02 0.59793565362E+02 0.47218825065E+02
 0.37025829550E+02 0.29037025837E+02 0.22933555789E+02 0.18382138696E+02 0.15106896529E+02
 0.12905565044E+02 0.11638454526E+02 0.11567157742E+02 0.11970677559E+02 0.13227947957E+02
 0.15421668051E+02 0.18692283176E+02 0.23246743068E+02 0.29363608612E+02 0.37370302459E+02
 0.47572135854E+02 0.60137006296E+02 0.74963298438E+02 0.91559434031E+02 0.10895224305E+03
 0.12565519434E+03 0.13977220756E+03 0.14932119373E+03 0.15275505283E+03 0.14947565757E+03
 0.14005468030E+03 0.12602229669E+03 0.10935689825E+03 0.91961236260E+02 0.75333335935E+02
 0.60458349695E+02 0.47838205877E+02 0.37582334082E+02 0.29527615389E+02 0.23370490308E+02
 0.18783027592E+02 0.15485097294E+02 0.13268078682E+02 0.11990095815E+02 0.12635662990E+02
 0.13051802875E+02 0.14343621168E+02 0.16588646959E+02 0.19932438267E+02 0.24597462441E+02
 0.30871507706E+02 0.39065643569E+02 0.49444202743E+02 0.62140074657E+02 0.77062993475E+02
 0.93790219256E+02 0.11143402171E+03 0.12853803078E+03 0.14313254547E+03 0.15307788553E+03
 0.15666848749E+03 0.15323924230E+03 0.14342588583E+03 0.12891586819E+03 0.11184631214E+03
 0.94196093263E+02 0.77435165979E+02 0.62463696611E+02 0.49713724741E+02 0.39281923329E+02
 0.31039516448E+02 0.24724226522E+02 0.20025174496E+02 0.16653416021E+02 0.14384718493E+02
 0.13071781828E+02 0.14484485957E+02 0.14922633262E+02 0.16276573256E+02 0.18617317803E+02
 0.22096160286E+02 0.26951652272E+02 0.33475436148E+02 0.41948252098E+02 0.52578745334E+02
 0.65464019485E+02 0.80543943694E+02 0.97488962245E+02 0.11550187842E+03 0.13312826338E+03
 0.14827550073E+03 0.15863646403E+03 0.16238237817E+03 0.15880484139E+03 0.14858083347E+03
 0.13351935725E+03 0.11592479691E+03 0.97901307277E+02 0.80919808438E+02 0.65791088402E+02
 0.52853113848E+02 0.42170645517E+02 0.33649561944E+02 0.27083414049E+02 0.22192500273E+02
 0.18684633361E+02 0.16319466586E+02 0.14943609285E+02 0.17210283477E+02 0.17679829652E+02
 0.19125352916E+02 0.21612897457E+02 0.25298352395E+02 0.30428193778E+02 0.37282109376E+02
 0.46094509742E+02 0.57014646317E+02 0.70115196070E+02 0.85372363662E+02 0.10251658483E+03
 0.12074196296E+03 0.13846483972E+03 0.15350732273E+03 0.16364979462E+03 0.16728082853E+03
 0.16381379585E+03 0.15380858517E+03 0.13885609414E+03 0.12116898516E+03 0.10293376708E+03
 0.85751990401E+02 0.70446072148E+02 0.57294343747E+02 0.46323965003E+02 0.37463897789E+02
 0.30566828309E+02 0.25400082502E+02 0.21684159720E+02 0.19170953948E+02 0.17702241962E+02
 0.20961398632E+02 0.21470235973E+02 0.23033753556E+02 0.25717118838E+02 0.29679209057E+02
 0.35161688663E+02 0.42412215150E+02 0.51605301114E+02 0.62833974105E+02 0.76150609015E+02
 0.91524624363E+02 0.10858792694E+03 0.12622149305E+03 0.14253738382E+03 0.15544758552E+03
 0.16351468062E+03 0.16625541995E+03 0.16364114773E+03 0.15569649480E+03 0.14288621902E+03
 0.12662580386E+03 0.10899809452E+03 0.91904635776E+02 0.76484591209E+02 0.63118953151E+02
 0.51842203129E+02 0.42602706090E+02 0.35308772331E+02 0.29787987923E+02 0.25793643328E+02
 0.23082869027E+02 0.21494438535E+02 0.25955244126E+02 0.26508804597E+02 0.28209410485E+02
 0.31125443599E+02 0.35416358567E+02 0.41306229877E+02 0.48994860628E+02 0.58592681437E+02
 0.70144890987E+02 0.83667948004E+02 0.99006574237E+02 0.11534456108E+03 0.13080289498E+03
 0.14286898493E+03 0.14987610228E+03 0.15245153592E+03 0.15288309938E+03 0.15247937399E+03
 0.14998293826E+03 0.14309520368E+03 0.13113302177E+03 0.11572293637E+03 0.99378889024E+02
 0.84003402384E+02 0.70434935826E+02 0.58837036630E+02 0.49194426511E+02 0.41462618216E+02
 0.35533248209E+02 0.31208114057E+02 0.28262562249E+02 0.26535005049E+02 0.32462674898E+02
 0.33064584672E+02 0.34914063787E+02 0.38082514073E+02 0.42723945598E+02 0.49033366434E+02
 0.57155876797E+02 0.67147404813E+02 0.79022171937E+02 0.92735307636E+02 0.10782718551E+03
 0.12262640383E+03 0.13392752428E+03 0.13817888657E+03 0.13456903611E+03 0.12739994999E+03
 0.12376064928E+03 0.12725282140E+03 0.13442121208E+03 0.13818135725E+03 0.13411844159E+03
 0.12294188450E+03 0.10818077230E+03 0.93070060822E+02 0.79316674258E+02 0.67398414944E+02
 0.57363708680E+02 0.49198673443E+02 0.42849006842E+02 0.38171574506E+02 0.34971450562E+02
 0.33092871186E+02 0.40739519777E+02 0.41393415961E+02 0.43399897181E+02 0.46824692228E+02
 0.51803103846E+02 0.58488987400E+02 0.66972910621E+02 0.77276332913E+02 0.89409944726E+02
 0.10325986781E+03 0.11792841384E+03 0.13062394094E+03 0.13639212670E+03 0.13035275033E+03
 0.11286824584E+03 0.93034188162E+02 0.84119019237E+02 0.92659178568E+02 0.11238716706E+03
 0.13006023522E+03 0.13639768587E+03 0.13085428453E+03 0.11825491919E+03 0.10359105494E+03
 0.89706789257E+02 0.77531372369E+02 0.67186342339E+02 0.58661192304E+02 0.51935216274E+02
 0.46919740348E+02 0.43461492107E+02 0.41423850166E+02 0.50943138215E+02 0.51653248509E+02
 0.53821870092E+02 0.57489726217E+02 0.62751575065E+02 0.69706050572E+02 0.78391203720E+02
 0.88814118079E+02 0.10101309583E+03 0.11483591036E+03 0.12898621658E+03 0.13963439430E+03
 0.14018653676E+03 0.12453845107E+03 0.94169976443E+02 0.62618592514E+02 0.48831322569E+02
 0.62031774290E+02 0.93377997921E+02 0.12396898347E+03 0.14001620832E+03 0.13978190738E+03
 0.12928355741E+03 0.11515898621E+03 0.10130690886E+03 0.89067543918E+02 0.78605122965E+02
 0.69881241703E+02 0.62888318178E+02 0.57589671128E+02 0.53887436559E+02 0.51685896710E+02
 0.63109812554E+02 0.63878183751E+02 0.66201819555E+02 0.70065803772E+02 0.75496135787E+02
 0.82524030902E+02 0.91138744983E+02 0.10134431252E+03 0.11322626943E+03 0.12665769434E+03
 0.14017044202E+03 0.14940417462E+03 0.14691218466E+03 0.12597731552E+03 0.88700939840E+02
 0.50946633318E+02 0.34593737416E+02 0.50246190854E+02 0.87740278412E+02 0.12525395962E+03